Program Version,EnergyPlus, Version 9.0.1-bb7ca4f0da, YMD=2021.01.06 11:28
1,5,Environment Title[],Latitude[deg],Longitude[deg],Time Zone[],Elevation[m]
2,8,Day of Simulation[],Month[],Day of Month[],DST Indicator[1=yes 0=no],Hour[],StartMinute[],EndMinute[],DayType
3,5,Cumulative Day of Simulation[],Month[],Day of Month[],DST Indicator[1=yes 0=no],DayType  ! When Daily Meters Requested
4,2,Cumulative Days of Simulation[],Month[]  ! When Monthly Meters Requested
5,1,Cumulative Days of Simulation[] ! When Run Period Meters Requested
6,1,Calendar Year of Simulation[] ! When Annual Meters Requested
25,1,Electricity:Facility [J] !Hourly
153,1,InteriorEquipment:Electricity [J] !Hourly
61,1,InteriorLights:Electricity [J] !Hourly
665,1,DistrictCooling:Facility [J] !Hourly
628,1,DistrictHeating:Facility [J] !Hourly
727,1,Carbon Equivalent:Facility [kg] !Hourly
End of Data Dictionary
1,SENZA TITOLO (O1-O1:31-12),  59.90,  10.62,   1.00,  17.00
2,1, 1, 1, 0, 1, 0.00,60.00,Sunday
25,1197395.0195587199
61,0.0
153,1197395.0195587199
628,3634972.306206311
665,0.0
727,0.0
2,1, 1, 1, 0, 2, 0.00,60.00,Sunday
25,1197395.0195587199
61,0.0
153,1197395.0195587199
628,3650457.926164957
665,0.0
727,0.0
2,1, 1, 1, 0, 3, 0.00,60.00,Sunday
25,1197395.0195587199
61,0.0
153,1197395.0195587199
628,3734132.6600356397
665,0.0
727,0.0
2,1, 1, 1, 0, 4, 0.00,60.00,Sunday
25,1197395.0195587199
61,0.0
153,1197395.0195587199
628,3793029.402850877
665,0.0
727,0.0
2,1, 1, 1, 0, 5, 0.00,60.00,Sunday
25,1197395.0195587199
61,0.0
153,1197395.0195587199
628,3892578.2889753396
665,0.0
727,0.0
2,1, 1, 1, 0, 6, 0.00,60.00,Sunday
25,1197395.0195587199
61,0.0
153,1197395.0195587199
628,3946676.276135263
665,0.0
727,0.0
2,1, 1, 1, 0, 7, 0.00,60.00,Sunday
25,1284957.8195587199
61,87562.8
153,1197395.0195587199
628,3977039.1216751707
665,0.0
727,0.0
2,1, 1, 1, 0, 8, 0.00,60.00,Sunday
25,3060892.477949904
61,1749418.2
153,1311474.2779499039
628,3244452.6025001385
665,0.0
727,0.0
2,1, 1, 1, 0, 9, 0.00,60.00,Sunday
25,3174969.5676
61,1749418.2
153,1425551.3676
628,3114395.8317315059
665,0.0
727,0.0
2,1, 1, 1, 0,10, 0.00,60.00,Sunday
25,2431425.489448326
61,1119951.211498422
153,1311474.2779499039
628,3436739.539159625
665,0.0
727,0.0
2,1, 1, 1, 0,11, 0.00,60.00,Sunday
25,1333290.87955872
61,135895.86
153,1197395.0195587199
628,3051654.621559093
665,0.0
727,0.0
2,1, 1, 1, 0,12, 0.00,60.00,Sunday
25,1333290.87955872
61,135895.86
153,1197395.0195587199
628,2327731.0045587217
665,0.0
727,0.0
2,1, 1, 1, 0,13, 0.00,60.00,Sunday
25,1397230.3333092414
61,199835.31375052158
153,1197395.0195587199
628,2330776.6369200528
665,0.0
727,0.0
2,1, 1, 1, 0,14, 0.00,60.00,Sunday
25,1333290.87955872
61,135895.86
153,1197395.0195587199
628,1881411.200505364
665,0.0
727,0.0
2,1, 1, 1, 0,15, 0.00,60.00,Sunday
25,1333290.87955872
61,135895.86
153,1197395.0195587199
628,1887843.8005614463
665,0.0
727,0.0
2,1, 1, 1, 0,16, 0.00,60.00,Sunday
25,2431786.680882942
61,1234391.6613242217
153,1197395.0195587199
628,1849601.4258264607
665,0.0
727,0.0
2,1, 1, 1, 0,17, 0.00,60.00,Sunday
25,2556353.6195587206
61,1358958.6
153,1197395.0195587199
628,2012963.6512151433
665,0.0
727,0.0
2,1, 1, 1, 0,18, 0.00,60.00,Sunday
25,2613393.2487543125
61,1358958.6
153,1254434.648754312
628,2136018.374428249
665,0.0
727,0.0
2,1, 1, 1, 0,19, 0.00,60.00,Sunday
25,2757995.677949904
61,1446521.4
153,1311474.2779499039
628,2144344.2920806247
665,0.0
727,0.0
2,1, 1, 1, 0,20, 0.00,60.00,Sunday
25,2875612.498404408
61,1507100.76
153,1368511.738404408
628,2205062.750501446
665,0.0
727,0.0
2,1, 1, 1, 0,21, 0.00,60.00,Sunday
25,2932652.1276000004
61,1507100.76
153,1425551.3676
628,2296133.366758029
665,0.0
727,0.0
2,1, 1, 1, 0,22, 0.00,60.00,Sunday
25,2932652.1276000004
61,1507100.76
153,1425551.3676
628,2427682.014322922
665,0.0
727,0.0
2,1, 1, 1, 0,23, 0.00,60.00,Sunday
25,2516257.978404408
61,1147746.24
153,1368511.738404408
628,2753025.8761532327
665,0.0
727,0.0
2,1, 1, 1, 0,24, 0.00,60.00,Sunday
25,1526226.368754312
61,271791.72
153,1254434.648754312
628,3428800.3467028925
665,0.0
727,0.0
2,2, 1, 2, 0, 1, 0.00,60.00,Holiday
25,1197395.0195587199
61,0.0
153,1197395.0195587199
628,3877291.925937183
665,0.0
727,0.0
2,2, 1, 2, 0, 2, 0.00,60.00,Holiday
25,1197395.0195587199
61,0.0
153,1197395.0195587199
628,4085918.728725715
665,0.0
727,0.0
2,2, 1, 2, 0, 3, 0.00,60.00,Holiday
25,1197395.0195587199
61,0.0
153,1197395.0195587199
628,4138936.150515497
665,0.0
727,0.0
2,2, 1, 2, 0, 4, 0.00,60.00,Holiday
25,1197395.0195587199
61,0.0
153,1197395.0195587199
628,4237281.975872113
665,0.0
727,0.0
2,2, 1, 2, 0, 5, 0.00,60.00,Holiday
25,1197395.0195587199
61,0.0
153,1197395.0195587199
628,4346412.996372676
665,0.0
727,0.0
2,2, 1, 2, 0, 6, 0.00,60.00,Holiday
25,1197395.0195587199
61,0.0
153,1197395.0195587199
628,4448923.050090282
665,0.0
727,0.0
2,2, 1, 2, 0, 7, 0.00,60.00,Holiday
25,1284957.8195587199
61,87562.8
153,1197395.0195587199
628,4427368.2696644249
665,0.0
727,0.0
2,2, 1, 2, 0, 8, 0.00,60.00,Holiday
25,3060892.477949904
61,1749418.2
153,1311474.2779499039
628,3549536.610565039
665,0.0
727,0.0
2,2, 1, 2, 0, 9, 0.00,60.00,Holiday
25,3174969.5676
61,1749418.2
153,1425551.3676
628,3371677.7758903077
665,0.0
727,0.0
2,2, 1, 2, 0,10, 0.00,60.00,Holiday
25,2926033.70035558
61,1614559.4224056758
153,1311474.2779499039
628,3495884.7771425677
665,0.0
727,0.0
2,2, 1, 2, 0,11, 0.00,60.00,Holiday
25,2085662.1754201356
61,888267.1558614153
153,1197395.0195587199
628,3792123.0490678895
665,0.0
727,0.0
2,2, 1, 2, 0,12, 0.00,60.00,Holiday
25,1682683.5606269197
61,485288.54106819976
153,1197395.0195587199
628,3752765.662081574
665,0.0
727,0.0
2,2, 1, 2, 0,13, 0.00,60.00,Holiday
25,1333290.87955872
61,135895.86
153,1197395.0195587199
628,3002001.026477655
665,0.0
727,0.0
2,2, 1, 2, 0,14, 0.00,60.00,Holiday
25,1333290.87955872
61,135895.86
153,1197395.0195587199
628,2367902.2477676656
665,0.0
727,0.0
2,2, 1, 2, 0,15, 0.00,60.00,Holiday
25,1333290.87955872
61,135895.86
153,1197395.0195587199
628,2326420.231178021
665,0.0
727,0.0
2,2, 1, 2, 0,16, 0.00,60.00,Holiday
25,2433176.220372454
61,1235781.2008137336
153,1197395.0195587199
628,2405440.1334109229
665,0.0
727,0.0
2,2, 1, 2, 0,17, 0.00,60.00,Holiday
25,2556353.6195587206
61,1358958.6
153,1197395.0195587199
628,2711594.1082797895
665,0.0
727,0.0
2,2, 1, 2, 0,18, 0.00,60.00,Holiday
25,2613393.2487543125
61,1358958.6
153,1254434.648754312
628,2929004.3895844917
665,0.0
727,0.0
2,2, 1, 2, 0,19, 0.00,60.00,Holiday
25,2757995.677949904
61,1446521.4
153,1311474.2779499039
628,3080442.2468430588
665,0.0
727,0.0
2,2, 1, 2, 0,20, 0.00,60.00,Holiday
25,2875612.498404408
61,1507100.76
153,1368511.738404408
628,3185232.429923253
665,0.0
727,0.0
2,2, 1, 2, 0,21, 0.00,60.00,Holiday
25,2932652.1276000004
61,1507100.76
153,1425551.3676
628,3226215.1407431128
665,0.0
727,0.0
2,2, 1, 2, 0,22, 0.00,60.00,Holiday
25,2932652.1276000004
61,1507100.76
153,1425551.3676
628,3282524.767611707
665,0.0
727,0.0
2,2, 1, 2, 0,23, 0.00,60.00,Holiday
25,2516257.978404408
61,1147746.24
153,1368511.738404408
628,3608496.751652792
665,0.0
727,0.0
2,2, 1, 2, 0,24, 0.00,60.00,Holiday
25,1526226.368754312
61,271791.72
153,1254434.648754312
628,4247871.336942693
665,0.0
727,0.0
2,3, 1, 3, 0, 1, 0.00,60.00,Tuesday
25,1197395.0195587199
61,0.0
153,1197395.0195587199
628,4539166.451557146
665,0.0
727,0.0
2,3, 1, 3, 0, 2, 0.00,60.00,Tuesday
25,1197395.0195587199
61,0.0
153,1197395.0195587199
628,4643850.229553009
665,0.0
727,0.0
2,3, 1, 3, 0, 3, 0.00,60.00,Tuesday
25,1197395.0195587199
61,0.0
153,1197395.0195587199
628,4740136.684656991
665,0.0
727,0.0
2,3, 1, 3, 0, 4, 0.00,60.00,Tuesday
25,1197395.0195587199
61,0.0
153,1197395.0195587199
628,4866042.012889995
665,0.0
727,0.0
2,3, 1, 3, 0, 5, 0.00,60.00,Tuesday
25,1197395.0195587199
61,0.0
153,1197395.0195587199
628,4992178.225906564
665,0.0
727,0.0
2,3, 1, 3, 0, 6, 0.00,60.00,Tuesday
25,1197395.0195587199
61,0.0
153,1197395.0195587199
628,5114150.175493566
665,0.0
727,0.0
2,3, 1, 3, 0, 7, 0.00,60.00,Tuesday
25,2643916.4195587199
61,1446521.4
153,1197395.0195587199
628,4507685.242140974
665,0.0
727,0.0
2,3, 1, 3, 0, 8, 0.00,60.00,Tuesday
25,3060892.477949904
61,1749418.2
153,1311474.2779499039
628,4193784.446954442
665,0.0
727,0.0
2,3, 1, 3, 0, 9, 0.00,60.00,Tuesday
25,3174969.5676
61,1749418.2
153,1425551.3676
628,4044682.2585451269
665,0.0
727,0.0
2,3, 1, 3, 0,10, 0.00,60.00,Tuesday
25,2926183.5971334425
61,1614709.319183538
153,1311474.2779499039
628,4109792.206455989
665,0.0
727,0.0
2,3, 1, 3, 0,11, 0.00,60.00,Tuesday
25,2039068.5468508639
61,841673.5272921438
153,1197395.0195587199
628,4402297.555140634
665,0.0
727,0.0
2,3, 1, 3, 0,12, 0.00,60.00,Tuesday
25,1814651.5918012497
61,617256.5722425296
153,1197395.0195587199
628,4366602.597175159
665,0.0
727,0.0
2,3, 1, 3, 0,13, 0.00,60.00,Tuesday
25,1647277.6737650757
61,449882.65420635577
153,1197395.0195587199
628,4227094.885584998
665,0.0
727,0.0
2,3, 1, 3, 0,14, 0.00,60.00,Tuesday
25,1333290.87955872
61,135895.86
153,1197395.0195587199
628,3730638.840197134
665,0.0
727,0.0
2,3, 1, 3, 0,15, 0.00,60.00,Tuesday
25,2042310.956211279
61,844915.9366525591
153,1197395.0195587199
628,3766729.391668944
665,0.0
727,0.0
2,3, 1, 3, 0,16, 0.00,60.00,Tuesday
25,2546642.567648019
61,1349247.5480892992
153,1197395.0195587199
628,3892041.785299088
665,0.0
727,0.0
2,3, 1, 3, 0,17, 0.00,60.00,Tuesday
25,2556353.6195587206
61,1358958.6
153,1197395.0195587199
628,4025736.9473252587
665,0.0
727,0.0
2,3, 1, 3, 0,18, 0.00,60.00,Tuesday
25,2613393.2487543125
61,1358958.6
153,1254434.648754312
628,3865948.0452525799
665,0.0
727,0.0
2,3, 1, 3, 0,19, 0.00,60.00,Tuesday
25,2757995.677949904
61,1446521.4
153,1311474.2779499039
628,3605185.83830179
665,0.0
727,0.0
2,3, 1, 3, 0,20, 0.00,60.00,Tuesday
25,2875612.498404408
61,1507100.76
153,1368511.738404408
628,3502271.4260415139
665,0.0
727,0.0
2,3, 1, 3, 0,21, 0.00,60.00,Tuesday
25,2932652.1276000004
61,1507100.76
153,1425551.3676
628,3510820.2785644337
665,0.0
727,0.0
2,3, 1, 3, 0,22, 0.00,60.00,Tuesday
25,2932652.1276000004
61,1507100.76
153,1425551.3676
628,3608792.0076834496
665,0.0
727,0.0
2,3, 1, 3, 0,23, 0.00,60.00,Tuesday
25,2516257.978404408
61,1147746.24
153,1368511.738404408
628,3869566.6600114495
665,0.0
727,0.0
2,3, 1, 3, 0,24, 0.00,60.00,Tuesday
25,1526226.368754312
61,271791.72
153,1254434.648754312
628,4394413.267453443
665,0.0
727,0.0
2,4, 1, 4, 0, 1, 0.00,60.00,Wednesday
25,1197395.0195587199
61,0.0
153,1197395.0195587199
628,4552308.128572993
665,0.0
727,0.0
2,4, 1, 4, 0, 2, 0.00,60.00,Wednesday
25,1197395.0195587199
61,0.0
153,1197395.0195587199
628,4600054.910641257
665,0.0
727,0.0
2,4, 1, 4, 0, 3, 0.00,60.00,Wednesday
25,1197395.0195587199
61,0.0
153,1197395.0195587199
628,4807106.900987444
665,0.0
727,0.0
2,4, 1, 4, 0, 4, 0.00,60.00,Wednesday
25,1197395.0195587199
61,0.0
153,1197395.0195587199
628,5001505.190888791
665,0.0
727,0.0
2,4, 1, 4, 0, 5, 0.00,60.00,Wednesday
25,1197395.0195587199
61,0.0
153,1197395.0195587199
628,5107013.163569473
665,0.0
727,0.0
2,4, 1, 4, 0, 6, 0.00,60.00,Wednesday
25,1197395.0195587199
61,0.0
153,1197395.0195587199
628,5201112.795759238
665,0.0
727,0.0
2,4, 1, 4, 0, 7, 0.00,60.00,Wednesday
25,2643916.4195587199
61,1446521.4
153,1197395.0195587199
628,4531860.628049535
665,0.0
727,0.0
2,4, 1, 4, 0, 8, 0.00,60.00,Wednesday
25,3060892.477949904
61,1749418.2
153,1311474.2779499039
628,4121640.5079904219
665,0.0
727,0.0
2,4, 1, 4, 0, 9, 0.00,60.00,Wednesday
25,3174969.5676
61,1749418.2
153,1425551.3676
628,3868487.6445820487
665,0.0
727,0.0
2,4, 1, 4, 0,10, 0.00,60.00,Wednesday
25,2972186.7030141016
61,1660712.4250641973
153,1311474.2779499039
628,3974915.9386589529
665,0.0
727,0.0
2,4, 1, 4, 0,11, 0.00,60.00,Wednesday
25,2230905.1823647657
61,1033510.1628060456
153,1197395.0195587199
628,4387900.526617693
665,0.0
727,0.0
2,4, 1, 4, 0,12, 0.00,60.00,Wednesday
25,1984472.5408643522
61,787077.5213056323
153,1197395.0195587199
628,4462866.522782055
665,0.0
727,0.0
2,4, 1, 4, 0,13, 0.00,60.00,Wednesday
25,1699656.4741375647
61,502261.4545788448
153,1197395.0195587199
628,4637904.791563582
665,0.0
727,0.0
2,4, 1, 4, 0,14, 0.00,60.00,Wednesday
25,1849240.0051949076
61,651844.9856361875
153,1197395.0195587199
628,4731563.532273851
665,0.0
727,0.0
2,4, 1, 4, 0,15, 0.00,60.00,Wednesday
25,2183424.008351803
61,986028.9887930828
153,1197395.0195587199
628,4709534.707094485
665,0.0
727,0.0
2,4, 1, 4, 0,16, 0.00,60.00,Wednesday
25,2537932.4948233
61,1340537.4752645798
153,1197395.0195587199
628,4660253.385234341
665,0.0
727,0.0
2,4, 1, 4, 0,17, 0.00,60.00,Wednesday
25,2556353.6195587206
61,1358958.6
153,1197395.0195587199
628,4730479.32530998
665,0.0
727,0.0
2,4, 1, 4, 0,18, 0.00,60.00,Wednesday
25,2613393.2487543125
61,1358958.6
153,1254434.648754312
628,4754325.352090564
665,0.0
727,0.0
2,4, 1, 4, 0,19, 0.00,60.00,Wednesday
25,2757995.677949904
61,1446521.4
153,1311474.2779499039
628,4722982.5356133
665,0.0
727,0.0
2,4, 1, 4, 0,20, 0.00,60.00,Wednesday
25,2875612.498404408
61,1507100.76
153,1368511.738404408
628,4678585.83599751
665,0.0
727,0.0
2,4, 1, 4, 0,21, 0.00,60.00,Wednesday
25,2932652.1276000004
61,1507100.76
153,1425551.3676
628,4672223.170738447
665,0.0
727,0.0
2,4, 1, 4, 0,22, 0.00,60.00,Wednesday
25,2932652.1276000004
61,1507100.76
153,1425551.3676
628,4760312.037527897
665,0.0
727,0.0
2,4, 1, 4, 0,23, 0.00,60.00,Wednesday
25,2516257.978404408
61,1147746.24
153,1368511.738404408
628,5109091.132529274
665,0.0
727,0.0
2,4, 1, 4, 0,24, 0.00,60.00,Wednesday
25,1526226.368754312
61,271791.72
153,1254434.648754312
628,5815369.740336265
665,0.0
727,0.0
2,5, 1, 5, 0, 1, 0.00,60.00,Thursday
25,1197395.0195587199
61,0.0
153,1197395.0195587199
628,6220397.1418916149
665,0.0
727,0.0
2,5, 1, 5, 0, 2, 0.00,60.00,Thursday
25,1197395.0195587199
61,0.0
153,1197395.0195587199
628,6456415.431535681
665,0.0
727,0.0
2,5, 1, 5, 0, 3, 0.00,60.00,Thursday
25,1197395.0195587199
61,0.0
153,1197395.0195587199
628,6640987.729085679
665,0.0
727,0.0
2,5, 1, 5, 0, 4, 0.00,60.00,Thursday
25,1197395.0195587199
61,0.0
153,1197395.0195587199
628,6829824.449545023
665,0.0
727,0.0
2,5, 1, 5, 0, 5, 0.00,60.00,Thursday
25,1197395.0195587199
61,0.0
153,1197395.0195587199
628,7074387.720488405
665,0.0
727,0.0
2,5, 1, 5, 0, 6, 0.00,60.00,Thursday
25,1197395.0195587199
61,0.0
153,1197395.0195587199
628,7323092.298543561
665,0.0
727,0.0
2,5, 1, 5, 0, 7, 0.00,60.00,Thursday
25,2643916.4195587199
61,1446521.4
153,1197395.0195587199
628,6745305.442245758
665,0.0
727,0.0
2,5, 1, 5, 0, 8, 0.00,60.00,Thursday
25,3060892.477949904
61,1749418.2
153,1311474.2779499039
628,6438804.146879358
665,0.0
727,0.0
2,5, 1, 5, 0, 9, 0.00,60.00,Thursday
25,3174969.5676
61,1749418.2
153,1425551.3676
628,6335950.6190181099
665,0.0
727,0.0
2,5, 1, 5, 0,10, 0.00,60.00,Thursday
25,2411113.4554484498
61,1099639.1774985456
153,1311474.2779499039
628,6401177.907247664
665,0.0
727,0.0
2,5, 1, 5, 0,11, 0.00,60.00,Thursday
25,1333290.87955872
61,135895.86
153,1197395.0195587199
628,5723213.350536407
665,0.0
727,0.0
2,5, 1, 5, 0,12, 0.00,60.00,Thursday
25,1333290.87955872
61,135895.86
153,1197395.0195587199
628,4962123.411473244
665,0.0
727,0.0
2,5, 1, 5, 0,13, 0.00,60.00,Thursday
25,1333290.87955872
61,135895.86
153,1197395.0195587199
628,4237856.046605852
665,0.0
727,0.0
2,5, 1, 5, 0,14, 0.00,60.00,Thursday
25,1333290.87955872
61,135895.86
153,1197395.0195587199
628,3692713.6465836355
665,0.0
727,0.0
2,5, 1, 5, 0,15, 0.00,60.00,Thursday
25,1333290.87955872
61,135895.86
153,1197395.0195587199
628,3960039.0409979217
665,0.0
727,0.0
2,5, 1, 5, 0,16, 0.00,60.00,Thursday
25,2427923.587611328
61,1230528.5680526077
153,1197395.0195587199
628,4333381.127196068
665,0.0
727,0.0
2,5, 1, 5, 0,17, 0.00,60.00,Thursday
25,2556353.6195587206
61,1358958.6
153,1197395.0195587199
628,4758477.3897714079
665,0.0
727,0.0
2,5, 1, 5, 0,18, 0.00,60.00,Thursday
25,2613393.2487543125
61,1358958.6
153,1254434.648754312
628,4994539.749493854
665,0.0
727,0.0
2,5, 1, 5, 0,19, 0.00,60.00,Thursday
25,2757995.677949904
61,1446521.4
153,1311474.2779499039
628,5262128.508098219
665,0.0
727,0.0
2,5, 1, 5, 0,20, 0.00,60.00,Thursday
25,2875612.498404408
61,1507100.76
153,1368511.738404408
628,5343249.547781974
665,0.0
727,0.0
2,5, 1, 5, 0,21, 0.00,60.00,Thursday
25,2932652.1276000004
61,1507100.76
153,1425551.3676
628,5243068.301331611
665,0.0
727,0.0
2,5, 1, 5, 0,22, 0.00,60.00,Thursday
25,2932652.1276000004
61,1507100.76
153,1425551.3676
628,5250875.436711054
665,0.0
727,0.0
2,5, 1, 5, 0,23, 0.00,60.00,Thursday
25,2516257.978404408
61,1147746.24
153,1368511.738404408
628,5520631.01722622
665,0.0
727,0.0
2,5, 1, 5, 0,24, 0.00,60.00,Thursday
25,1526226.368754312
61,271791.72
153,1254434.648754312
628,6152992.484959453
665,0.0
727,0.0
2,6, 1, 6, 0, 1, 0.00,60.00,Friday
25,1197395.0195587199
61,0.0
153,1197395.0195587199
628,6485150.694071367
665,0.0
727,0.0
2,6, 1, 6, 0, 2, 0.00,60.00,Friday
25,1197395.0195587199
61,0.0
153,1197395.0195587199
628,6601484.376016639
665,0.0
727,0.0
2,6, 1, 6, 0, 3, 0.00,60.00,Friday
25,1197395.0195587199
61,0.0
153,1197395.0195587199
628,6733427.86207091
665,0.0
727,0.0
2,6, 1, 6, 0, 4, 0.00,60.00,Friday
25,1197395.0195587199
61,0.0
153,1197395.0195587199
628,6873483.16367806
665,0.0
727,0.0
2,6, 1, 6, 0, 5, 0.00,60.00,Friday
25,1197395.0195587199
61,0.0
153,1197395.0195587199
628,6987246.238111486
665,0.0
727,0.0
2,6, 1, 6, 0, 6, 0.00,60.00,Friday
25,1197395.0195587199
61,0.0
153,1197395.0195587199
628,7095501.084786768
665,0.0
727,0.0
2,6, 1, 6, 0, 7, 0.00,60.00,Friday
25,2643916.4195587199
61,1446521.4
153,1197395.0195587199
628,6441605.552226677
665,0.0
727,0.0
2,6, 1, 6, 0, 8, 0.00,60.00,Friday
25,3060892.477949904
61,1749418.2
153,1311474.2779499039
628,6051322.934176238
665,0.0
727,0.0
2,6, 1, 6, 0, 9, 0.00,60.00,Friday
25,3174969.5676
61,1749418.2
153,1425551.3676
628,5783371.712282702
665,0.0
727,0.0
2,6, 1, 6, 0,10, 0.00,60.00,Friday
25,2916995.9420829599
61,1605521.6641330557
153,1311474.2779499039
628,5624602.703571522
665,0.0
727,0.0
2,6, 1, 6, 0,11, 0.00,60.00,Friday
25,2005328.4365583617
61,807933.4169996413
153,1197395.0195587199
628,5695315.652301632
665,0.0
727,0.0
2,6, 1, 6, 0,12, 0.00,60.00,Friday
25,1721545.3796527617
61,524150.36009404159
153,1197395.0195587199
628,5481771.927825198
665,0.0
727,0.0
2,6, 1, 6, 0,13, 0.00,60.00,Friday
25,1676928.026036028
61,479533.00647730819
153,1197395.0195587199
628,5218777.369189353
665,0.0
727,0.0
2,6, 1, 6, 0,14, 0.00,60.00,Friday
25,1853921.8625931638
61,656526.8430344437
153,1197395.0195587199
628,4916914.188090753
665,0.0
727,0.0
2,6, 1, 6, 0,15, 0.00,60.00,Friday
25,2186051.672068302
61,988656.6525095821
153,1197395.0195587199
628,4660651.461743185
665,0.0
727,0.0
2,6, 1, 6, 0,16, 0.00,60.00,Friday
25,2538037.530411048
61,1340642.5108523276
153,1197395.0195587199
628,4524952.043932361
665,0.0
727,0.0
2,6, 1, 6, 0,17, 0.00,60.00,Friday
25,2556353.6195587206
61,1358958.6
153,1197395.0195587199
628,4374908.424088008
665,0.0
727,0.0
2,6, 1, 6, 0,18, 0.00,60.00,Friday
25,2613393.2487543125
61,1358958.6
153,1254434.648754312
628,4090730.512368885
665,0.0
727,0.0
2,6, 1, 6, 0,19, 0.00,60.00,Friday
25,2757995.677949904
61,1446521.4
153,1311474.2779499039
628,3866072.359190505
665,0.0
727,0.0
2,6, 1, 6, 0,20, 0.00,60.00,Friday
25,2875612.498404408
61,1507100.76
153,1368511.738404408
628,3626796.472946203
665,0.0
727,0.0
2,6, 1, 6, 0,21, 0.00,60.00,Friday
25,2932652.1276000004
61,1507100.76
153,1425551.3676
628,3384108.972831897
665,0.0
727,0.0
2,6, 1, 6, 0,22, 0.00,60.00,Friday
25,2932652.1276000004
61,1507100.76
153,1425551.3676
628,3278790.1269868856
665,0.0
727,0.0
2,6, 1, 6, 0,23, 0.00,60.00,Friday
25,2516257.978404408
61,1147746.24
153,1368511.738404408
628,3361876.270836249
665,0.0
727,0.0
2,6, 1, 6, 0,24, 0.00,60.00,Friday
25,1526226.368754312
61,271791.72
153,1254434.648754312
628,3774408.33874692
665,0.0
727,0.0
2,7, 1, 7, 0, 1, 0.00,60.00,Saturday
25,1197395.0195587199
61,0.0
153,1197395.0195587199
628,3935512.5872777525
665,0.0
727,0.0
2,7, 1, 7, 0, 2, 0.00,60.00,Saturday
25,1197395.0195587199
61,0.0
153,1197395.0195587199
628,3959099.303297908
665,0.0
727,0.0
2,7, 1, 7, 0, 3, 0.00,60.00,Saturday
25,1197395.0195587199
61,0.0
153,1197395.0195587199
628,4000593.668251163
665,0.0
727,0.0
2,7, 1, 7, 0, 4, 0.00,60.00,Saturday
25,1197395.0195587199
61,0.0
153,1197395.0195587199
628,4122733.878314956
665,0.0
727,0.0
2,7, 1, 7, 0, 5, 0.00,60.00,Saturday
25,1197395.0195587199
61,0.0
153,1197395.0195587199
628,4276284.917317063
665,0.0
727,0.0
2,7, 1, 7, 0, 6, 0.00,60.00,Saturday
25,1197395.0195587199
61,0.0
153,1197395.0195587199
628,4367800.30080351
665,0.0
727,0.0
2,7, 1, 7, 0, 7, 0.00,60.00,Saturday
25,1284957.8195587199
61,87562.8
153,1197395.0195587199
628,4382101.733186071
665,0.0
727,0.0
2,7, 1, 7, 0, 8, 0.00,60.00,Saturday
25,3060892.477949904
61,1749418.2
153,1311474.2779499039
628,3564763.839029493
665,0.0
727,0.0
2,7, 1, 7, 0, 9, 0.00,60.00,Saturday
25,3174969.5676
61,1749418.2
153,1425551.3676
628,3454300.1655234929
665,0.0
727,0.0
2,7, 1, 7, 0,10, 0.00,60.00,Saturday
25,2917394.874975069
61,1605920.5970251649
153,1311474.2779499039
628,3587190.2553692369
665,0.0
727,0.0
2,7, 1, 7, 0,11, 0.00,60.00,Saturday
25,2000992.6429255019
61,803597.6233667815
153,1197395.0195587199
628,3966045.97469583
665,0.0
727,0.0
2,7, 1, 7, 0,12, 0.00,60.00,Saturday
25,1685682.9939043429
61,488287.9743456227
153,1197395.0195587199
628,4081365.541495675
665,0.0
727,0.0
2,7, 1, 7, 0,13, 0.00,60.00,Saturday
25,1638337.5952458983
61,440942.57568717826
153,1197395.0195587199
628,4034952.512352323
665,0.0
727,0.0
2,7, 1, 7, 0,14, 0.00,60.00,Saturday
25,1817448.599119928
61,620053.579561208
153,1197395.0195587199
628,3808393.095279366
665,0.0
727,0.0
2,7, 1, 7, 0,15, 0.00,60.00,Saturday
25,2157864.485542963
61,960469.465984243
153,1197395.0195587199
628,3758036.980832964
665,0.0
727,0.0
2,7, 1, 7, 0,16, 0.00,60.00,Saturday
25,2528833.2320526398
61,1331438.2124939194
153,1197395.0195587199
628,3867888.0543968977
665,0.0
727,0.0
2,7, 1, 7, 0,17, 0.00,60.00,Saturday
25,2556353.6195587206
61,1358958.6
153,1197395.0195587199
628,3982791.392246654
665,0.0
727,0.0
2,7, 1, 7, 0,18, 0.00,60.00,Saturday
25,2613393.2487543125
61,1358958.6
153,1254434.648754312
628,4021544.434815563
665,0.0
727,0.0
2,7, 1, 7, 0,19, 0.00,60.00,Saturday
25,2757995.677949904
61,1446521.4
153,1311474.2779499039
628,3968474.9866595759
665,0.0
727,0.0
2,7, 1, 7, 0,20, 0.00,60.00,Saturday
25,2875612.498404408
61,1507100.76
153,1368511.738404408
628,3884835.2278501179
665,0.0
727,0.0
2,7, 1, 7, 0,21, 0.00,60.00,Saturday
25,2932652.1276000004
61,1507100.76
153,1425551.3676
628,3891659.8375267388
665,0.0
727,0.0
2,7, 1, 7, 0,22, 0.00,60.00,Saturday
25,2932652.1276000004
61,1507100.76
153,1425551.3676
628,3967281.3705483337
665,0.0
727,0.0
2,7, 1, 7, 0,23, 0.00,60.00,Saturday
25,2516257.978404408
61,1147746.24
153,1368511.738404408
628,4243465.314963817
665,0.0
727,0.0
2,7, 1, 7, 0,24, 0.00,60.00,Saturday
25,1526226.368754312
61,271791.72
153,1254434.648754312
628,4851892.560065902
665,0.0
727,0.0
2,8, 1, 8, 0, 1, 0.00,60.00,Sunday
25,1197395.0195587199
61,0.0
153,1197395.0195587199
628,5191239.48782924
665,0.0
727,0.0
2,8, 1, 8, 0, 2, 0.00,60.00,Sunday
25,1197395.0195587199
61,0.0
153,1197395.0195587199
628,5329740.083459886
665,0.0
727,0.0
2,8, 1, 8, 0, 3, 0.00,60.00,Sunday
25,1197395.0195587199
61,0.0
153,1197395.0195587199
628,5407648.481330719
665,0.0
727,0.0
2,8, 1, 8, 0, 4, 0.00,60.00,Sunday
25,1197395.0195587199
61,0.0
153,1197395.0195587199
628,5467273.762532509
665,0.0
727,0.0
2,8, 1, 8, 0, 5, 0.00,60.00,Sunday
25,1197395.0195587199
61,0.0
153,1197395.0195587199
628,5518278.335720392
665,0.0
727,0.0
2,8, 1, 8, 0, 6, 0.00,60.00,Sunday
25,1197395.0195587199
61,0.0
153,1197395.0195587199
628,5563152.803137805
665,0.0
727,0.0
2,8, 1, 8, 0, 7, 0.00,60.00,Sunday
25,1284957.8195587199
61,87562.8
153,1197395.0195587199
628,5564602.183444189
665,0.0
727,0.0
2,8, 1, 8, 0, 8, 0.00,60.00,Sunday
25,3060892.477949904
61,1749418.2
153,1311474.2779499039
628,4710125.78572126
665,0.0
727,0.0
2,8, 1, 8, 0, 9, 0.00,60.00,Sunday
25,3174969.5676
61,1749418.2
153,1425551.3676
628,4517330.631358496
665,0.0
727,0.0
2,8, 1, 8, 0,10, 0.00,60.00,Sunday
25,2095051.6375881902
61,783577.3596382864
153,1311474.2779499039
628,4391814.095763238
665,0.0
727,0.0
2,8, 1, 8, 0,11, 0.00,60.00,Sunday
25,1333290.87955872
61,135895.86
153,1197395.0195587199
628,3739910.773249505
665,0.0
727,0.0
2,8, 1, 8, 0,12, 0.00,60.00,Sunday
25,1396427.2170940876
61,199032.19753536775
153,1197395.0195587199
628,3833530.1287503365
665,0.0
727,0.0
2,8, 1, 8, 0,13, 0.00,60.00,Sunday
25,1333290.87955872
61,135895.86
153,1197395.0195587199
628,3301538.0163713118
665,0.0
727,0.0
2,8, 1, 8, 0,14, 0.00,60.00,Sunday
25,1685332.268088849
61,487937.248530129
153,1197395.0195587199
628,3415281.187573688
665,0.0
727,0.0
2,8, 1, 8, 0,15, 0.00,60.00,Sunday
25,2158901.373253724
61,961506.353695004
153,1197395.0195587199
628,3433176.4832022178
665,0.0
727,0.0
2,8, 1, 8, 0,16, 0.00,60.00,Sunday
25,2528875.9689899689
61,1331480.9494312488
153,1197395.0195587199
628,3412663.7717432209
665,0.0
727,0.0
2,8, 1, 8, 0,17, 0.00,60.00,Sunday
25,2556353.6195587206
61,1358958.6
153,1197395.0195587199
628,3497389.133083974
665,0.0
727,0.0
2,8, 1, 8, 0,18, 0.00,60.00,Sunday
25,2613393.2487543125
61,1358958.6
153,1254434.648754312
628,3547039.3860587326
665,0.0
727,0.0
2,8, 1, 8, 0,19, 0.00,60.00,Sunday
25,2757995.677949904
61,1446521.4
153,1311474.2779499039
628,3514249.9857727319
665,0.0
727,0.0
2,8, 1, 8, 0,20, 0.00,60.00,Sunday
25,2875612.498404408
61,1507100.76
153,1368511.738404408
628,3529251.792933695
665,0.0
727,0.0
2,8, 1, 8, 0,21, 0.00,60.00,Sunday
25,2932652.1276000004
61,1507100.76
153,1425551.3676
628,3582355.0600283357
665,0.0
727,0.0
2,8, 1, 8, 0,22, 0.00,60.00,Sunday
25,2932652.1276000004
61,1507100.76
153,1425551.3676
628,3632625.2452768466
665,0.0
727,0.0
2,8, 1, 8, 0,23, 0.00,60.00,Sunday
25,2516257.978404408
61,1147746.24
153,1368511.738404408
628,3873283.831419205
665,0.0
727,0.0
2,8, 1, 8, 0,24, 0.00,60.00,Sunday
25,1526226.368754312
61,271791.72
153,1254434.648754312
628,4440550.057316433
665,0.0
727,0.0
2,9, 1, 9, 0, 1, 0.00,60.00,Monday
25,1197395.0195587199
61,0.0
153,1197395.0195587199
628,4720702.75800874
665,0.0
727,0.0
2,9, 1, 9, 0, 2, 0.00,60.00,Monday
25,1197395.0195587199
61,0.0
153,1197395.0195587199
628,4828132.561548264
665,0.0
727,0.0
2,9, 1, 9, 0, 3, 0.00,60.00,Monday
25,1197395.0195587199
61,0.0
153,1197395.0195587199
628,4910322.453115361
665,0.0
727,0.0
2,9, 1, 9, 0, 4, 0.00,60.00,Monday
25,1197395.0195587199
61,0.0
153,1197395.0195587199
628,4977409.930181552
665,0.0
727,0.0
2,9, 1, 9, 0, 5, 0.00,60.00,Monday
25,1197395.0195587199
61,0.0
153,1197395.0195587199
628,5026897.403550873
665,0.0
727,0.0
2,9, 1, 9, 0, 6, 0.00,60.00,Monday
25,1197395.0195587199
61,0.0
153,1197395.0195587199
628,5080328.859814212
665,0.0
727,0.0
2,9, 1, 9, 0, 7, 0.00,60.00,Monday
25,2643916.4195587199
61,1446521.4
153,1197395.0195587199
628,4424877.266086596
665,0.0
727,0.0
2,9, 1, 9, 0, 8, 0.00,60.00,Monday
25,3060892.477949904
61,1749418.2
153,1311474.2779499039
628,4100805.6100778549
665,0.0
727,0.0
2,9, 1, 9, 0, 9, 0.00,60.00,Monday
25,3174969.5676
61,1749418.2
153,1425551.3676
628,3790301.761429875
665,0.0
727,0.0
2,9, 1, 9, 0,10, 0.00,60.00,Monday
25,2094043.2482449185
61,782568.9702950148
153,1311474.2779499039
628,3763021.022597545
665,0.0
727,0.0
2,9, 1, 9, 0,11, 0.00,60.00,Monday
25,1763661.1187429254
61,566266.0991842055
153,1197395.0195587199
628,3931889.510388771
665,0.0
727,0.0
2,9, 1, 9, 0,12, 0.00,60.00,Monday
25,1934300.6619297576
61,736905.6423710375
153,1197395.0195587199
628,3864079.8810595448
665,0.0
727,0.0
2,9, 1, 9, 0,13, 0.00,60.00,Monday
25,1719488.2808125085
61,522093.2612537885
153,1197395.0195587199
628,3912231.5099961238
665,0.0
727,0.0
2,9, 1, 9, 0,14, 0.00,60.00,Monday
25,2050808.0719665979
61,853413.0524078778
153,1197395.0195587199
628,3768591.6553997534
665,0.0
727,0.0
2,9, 1, 9, 0,15, 0.00,60.00,Monday
25,2307954.259513128
61,1110559.2399544079
153,1197395.0195587199
628,3666922.8118781105
665,0.0
727,0.0
2,9, 1, 9, 0,16, 0.00,60.00,Monday
25,2538744.5486980525
61,1341349.5291393323
153,1197395.0195587199
628,3541226.3896289647
665,0.0
727,0.0
2,9, 1, 9, 0,17, 0.00,60.00,Monday
25,2556353.6195587206
61,1358958.6
153,1197395.0195587199
628,3397009.3938762175
665,0.0
727,0.0
2,9, 1, 9, 0,18, 0.00,60.00,Monday
25,2613393.2487543125
61,1358958.6
153,1254434.648754312
628,3058611.1296384709
665,0.0
727,0.0
2,9, 1, 9, 0,19, 0.00,60.00,Monday
25,2757995.677949904
61,1446521.4
153,1311474.2779499039
628,2727238.4603328967
665,0.0
727,0.0
2,9, 1, 9, 0,20, 0.00,60.00,Monday
25,2875612.498404408
61,1507100.76
153,1368511.738404408
628,2579330.483765781
665,0.0
727,0.0
2,9, 1, 9, 0,21, 0.00,60.00,Monday
25,2932652.1276000004
61,1507100.76
153,1425551.3676
628,2528739.8300144339
665,0.0
727,0.0
2,9, 1, 9, 0,22, 0.00,60.00,Monday
25,2932652.1276000004
61,1507100.76
153,1425551.3676
628,2579880.517267577
665,0.0
727,0.0
2,9, 1, 9, 0,23, 0.00,60.00,Monday
25,2516257.978404408
61,1147746.24
153,1368511.738404408
628,2879175.960340093
665,0.0
727,0.0
2,9, 1, 9, 0,24, 0.00,60.00,Monday
25,1526226.368754312
61,271791.72
153,1254434.648754312
628,3475402.54212017
665,0.0
727,0.0
2,10, 1,10, 0, 1, 0.00,60.00,Tuesday
25,1197395.0195587199
61,0.0
153,1197395.0195587199
628,3764819.5923673056
665,0.0
727,0.0
2,10, 1,10, 0, 2, 0.00,60.00,Tuesday
25,1197395.0195587199
61,0.0
153,1197395.0195587199
628,3924267.105685431
665,0.0
727,0.0
2,10, 1,10, 0, 3, 0.00,60.00,Tuesday
25,1197395.0195587199
61,0.0
153,1197395.0195587199
628,4059274.644613033
665,0.0
727,0.0
2,10, 1,10, 0, 4, 0.00,60.00,Tuesday
25,1197395.0195587199
61,0.0
153,1197395.0195587199
628,4149554.0854102729
665,0.0
727,0.0
2,10, 1,10, 0, 5, 0.00,60.00,Tuesday
25,1197395.0195587199
61,0.0
153,1197395.0195587199
628,4274566.312423576
665,0.0
727,0.0
2,10, 1,10, 0, 6, 0.00,60.00,Tuesday
25,1197395.0195587199
61,0.0
153,1197395.0195587199